[
    {
        "id": "short_1",
        "type": "short_answer",
        "question": "Write the names of two energy sources that you consider renewable.",
        "prashna": "ऐसे दो ऊर्जा स्रोतों के नाम लिखिए जिन्हें आप नवीकरणीय मानते हैं।"
    },
    {
        "id": "short_2",
        "type": "short_answer",
        "question": "What is ozone and how does it affect any ecosystem?",
        "prashna": "ओजोन क्या है तथा यह किसी पारितंत्र को किस प्रकार प्रभावित करती है?"
    },
    {
        "id": "short_3",
        "type": "short_answer",
        "question": "What changes can you bring in your habits to become environment-friendly?",
        "prashna": "पर्यावरण-मित्र बनाने के लिए आप अपनी आदतों में कौन-से परिवर्तन ला सकते हैं?"
    },
    {
        "id": "long_1",
        "type": "long_answer",
        "question": "Describe the working principle of an electric generator with a labeled diagram.",
        "prashna": "विद्युत जनित्र का सिद्धांत सहित कार्य विधि का सचित्र वर्णन करें।"
    },
    {
        "id": "short_4",
        "type": "short_answer",
        "question": "What is the meaning of the statement \"The refractive index of diamond is 2.42\"?",
        "prashna": "\"हीरे का अपवर्तनांक 2.42 है।\" इस कथन का क्या अभिप्राय है?"
    },
    {
        "id": "long_2",
        "type": "long_answer",
        "question": "Describe myopia (near-sightedness) with a clear diagram.",
        "prashna": "साफ चित्र द्वारा निकट दृष्टि दोष का वर्णन करें।"
    },
    {
        "id": "long_3",
        "type": "long_answer",
        "question": "Find the equivalent resistance of two resistors connected in parallel.",
        "prashna": "समांनातर श्रेणी में संयोजित दो प्रतिरोधों का तुल्य प्रतिरोध ज्ञात करें।"
    },
    {
        "id": "short_5",
        "type": "short_answer",
        "question": "What criteria do we use to decide whether something is alive?",
        "prashna": "कोई वस्तु सजीव है, इसका निर्धारण करने के लिए हम किस मापदंड का उपयोग करेंगे?"
    },
    {
        "id": "short_6",
        "type": "short_answer",
        "question": "How are oxygen and carbon dioxide transported in human beings?",
        "prashna": "मनुष्यों में ऑक्सीजन तथा कार्बन डाइऑक्साइड का परिवहन कैसे होता है?"
    },
    {
        "id": "short_7",
        "type": "short_answer",
        "question": "From where do plants obtain each of the raw materials required for photosynthesis?",
        "prashna": "प्रकाश संश्लेषण के लिए आवश्यक कच्ची सामग्री पौधे कहाँ से प्राप्त करते हैं?"
    },
    {
        "id": "long_4",
        "type": "long_answer",
        "question": "Draw a clean and labeled diagram of a nephron.",
        "prashna": "नेफ्रॉन का नामांकित स्वच्छ चित्र बनाइए।"
    },
    {
        "id": "long_5",
        "type": "long_answer",
        "question": "Write the structural formulas of the following organic compounds-",
        "prashna": "निम्नांकित कार्बनिक यौगिकों का संरचना सूत्र लिखिए-",
        "sub_questions": {
            "i": "Dichloromethane",
            "ii": "Ethanoic acid",
            "iii": "Ethane",
            "iv": "Formaldehyde",
            "v": "Propane"
        },
        "anuprashna": {
            "i": "डायक्लोरोमिथेन",
            "ii": "इथानोइक अम्ल",
            "iii": "इथेन",
            "iv": "फॉर्मल्डिहाइड",
            "v": "प्रोपेन"
        }
    },
    {
        "id": "short_8",
        "type": "short_answer",
        "question": "Why does an aqueous solution of an acid conduct electricity?",
        "prashna": "अम्ल का जलीय विलयन क्यों विद्युत का चालन करता है?"
    },
    {
        "id": "short_9",
        "type": "short_answer",
        "question": "What happens when zinc is added to a solution of iron (II) sulphate? Write the chemical reaction that takes place.",
        "prashna": "जिंक को आयरन (II) सल्फेट के विलयन में डालने से क्या होता है? होनेवाली रासायनिक अभिक्रिया लिखिए।"
    },
    {
        "id": "short_10",
        "type": "short_answer",
        "question": "What is a homologous series? Write with examples.",
        "prashna": "समजातीय श्रेणी क्या है ? उदाहरण के साथ लिखें।"
    },
    {
        "id": "obj_1",
        "type": "objective",
        "question": "Breakdown of pyruvate to give carbon dioxide, water and energy takes place in",
        "prashna": "पायरुवेट के विखंडन से कार्बन-डाइऑक्साइड, जल तथा ऊर्जा देता है और यह क्रिया होती है।",
        "options": {
            "A": "Cytoplasm",
            "B": "Mitochondria",
            "C": "Chloroplast",
            "D": "Nucleus"
        },
        "vikalpa": {
            "A": "कोशिका द्रव्य में",
            "B": "माइटोकॉन्ड्रिया में",
            "C": "हरित लवक में",
            "D": "केन्द्रक में"
        }
    },
    {
        "id": "obj_2",
        "type": "objective",
        "question": "Which of the following materials cannot be used to make a lens?",
        "prashna": "निम्न में कौन-सा पदार्थ लेंस बनाने के लिए प्रयुक्त नहीं किया जा सकता है?",
        "options": {
            "A": "Water",
            "B": "Glass",
            "C": "Plastic",
            "D": "Clay"
        },
        "vikalpa": {
            "A": "जल",
            "B": "काँच",
            "C": "प्लास्टिक",
            "D": "मिट्टी"
        }
    },
    {
        "id": "obj_3",
        "type": "objective",
        "question": "Where should an object be placed in front of a convex lens to get a real image of the same size as the object?",
        "prashna": "किसी बिंब का वास्तविक प्रतिबिंब समान आकार का प्राप्त करने हेतु बिंब को उत्तल लेंस के सामने कहाँ रखें?",
        "options": {
            "A": "At focus",
            "B": "At the centre of curvature",
            "C": "At infinity",
            "D": "At the optical centre"
        },
        "vikalpa": {
            "A": "फोकस पर",
            "B": "वक्रता केन्द्र पर",
            "C": "अनंत पर",
            "D": "प्रकाशीय केन्द्र पर"
        }
    },
    {
        "id": "obj_4",
        "type": "objective",
        "question": "The least distance of distinct vision for a young adult with normal vision is about",
        "prashna": "सामान्य दृष्टि के वयस्क के लिए सुस्पष्ट दर्शन की अल्पतम दूरी लगभग होती है",
        "options": {
            "A": "25 m",
            "B": "2.5 cm",
            "C": "25 cm",
            "D": "2.5 m"
        },
        "vikalpa": {
            "A": "25 मी",
            "B": "2.5 सेमी",
            "C": "25 सेमी",
            "D": "2.5 भी"
        }
    },
    {
        "id": "obj_5",
        "type": "objective",
        "question": "The atomic number of iron is",
        "prashna": "लोहे की परमाणु संख्या है",
        "options": {
            "A": "23",
            "B": "26",
            "C": "25",
            "D": "24"
        },
        "vikalpa": {
            "A": "23",
            "B": "26",
            "C": "25",
            "D": "24"
        }
    },
    {
        "id": "obj_6",
        "type": "objective",
        "question": "A solution turns red litmus blue, its pH is likely to be",
        "prashna": "कोई विलयन लाल लिटमस को नीला कर देता है। उसका pH होगा।",
        "options": {
            "A": "11",
            "B": "10",
            "C": "5",
            "D": "8"
        },
        "vikalpa": {
            "A": "11",
            "B": "10",
            "C": "5",
            "D": "8"
        }
    },
    {
        "id": "obj_7",
        "type": "objective",
        "question": "The number of groups in the modern periodic table is",
        "prashna": "आधुनिक आवर्त सारणी में वर्गों की संख्या होती है",
        "options": {
            "A": "9",
            "B": "18",
            "C": "11",
            "D": "10"
        },
        "vikalpa": {
            "A": "9",
            "B": "18",
            "C": "11",
            "D": "10"
        }
    },
    {
        "id": "obj_8",
        "type": "objective",
        "question": "The functional group $-CHO$ is called",
        "prashna": "–CHO अभिक्रिया मूलक को कहते हैं",
        "options": {
            "A": "Aldehyde",
            "B": "Alcohol",
            "C": "Ketone",
            "D": "None of these"
        },
        "vikalpa": {
            "A": "एल्डिहाइड",
            "B": "एल्कोहर",
            "C": "कीटोन",
            "D": "इनमें से कोई नहीं"
        }
    },
    {
        "id": "obj_9",
        "type": "objective",
        "question": "Which of the following terms does not represent electrical power in a circuit?",
        "prashna": "निम्नलिखित में से कौन-सा पद विद्युत परिपथ में विद्युत शक्ति को निरूपित नहीं करता है?",
        "options": {
            "A": "$I^2R$",
            "B": "$IR^2$",
            "C": "$VI$",
            "D": "$V^2/R$"
        },
        "vikalpa": {
            "A": "$I^2R$",
            "B": "$IR^2$",
            "C": "$VI$",
            "D": "$V^2/R$"
        }
    },
    {
        "id": "obj_10",
        "type": "objective",
        "question": "The device used for producing electric current is called a",
        "prashna": "विद्युत धारा उत्पन्न करने की युक्ति को कहते हैं",
        "options": {
            "A": "Generator",
            "B": "Galvanometer",
            "C": "Ammeter",
            "D": "Motor"
        },
        "vikalpa": {
            "A": "जनित्र",
            "B": "गैल्वेनोमीटर",
            "C": "ऐभीटय",
            "D": "भोटय"
        }
    },
    {
        "id": "obj_11",
        "type": "objective",
        "question": "At the time of short circuit, the current in the circuit",
        "prashna": "लघुपथन के समय परिपथ में विद्युत धारा का मान",
        "options": {
            "A": "decreases substantially",
            "B": "remains constant",
            "C": "increases heavily",
            "D": "varies continuously"
        },
        "vikalpa": {
            "A": "कम हो जाता है",
            "B": "स्थिर रहता है",
            "C": "बहुत अधिक बढ़ जाता है",
            "D": "निरंतर परिवर्तित होता है"
        }
    },
    {
        "id": "obj_12",
        "type": "objective",
        "question": "Which of the following is not an example of a bio-mass energy source?",
        "prashna": "निम्नलिखित में से कौन जैव मात्रा ऊर्जा स्रोत का उदाहरण नहीं है?",
        "options": {
            "A": "Wood",
            "B": "Gobar-gas",
            "C": "Nuclear energy",
            "D": "Coal"
        },
        "vikalpa": {
            "A": "लकड़ी",
            "B": "गोबर गैस",
            "C": "नाभिकीय ऊर्जा",
            "D": "कोयला"
        }
    },
    {
        "id": "obj_13",
        "type": "objective",
        "question": "An element reacts with oxygen to give a compound with a high melting point. This compound is also soluble in water. The element is likely to be",
        "prashna": "कोई तत्त्व ऑक्सीजन के साथ अभिक्रिया कर उच्च गलनांक वाला यौगिक निर्मित करती है। यह यौगिक जल में विलेय है। यह तत्त्व हो सकता है।",
        "options": {
            "A": "Ca",
            "B": "C",
            "C": "Si",
            "D": "Fe"
        },
        "vikalpa": {
            "A": "Ca",
            "B": "C",
            "C": "Si",
            "D": "Fe"
        }
    },
    {
        "id": "obj_14",
        "type": "objective",
        "question": "Ethane, with the molecular formula $C_2H_6$ has",
        "prashna": "एथेन का आण्विक सूत्र $C_2H_6$ है। इसमें",
        "options": {
            "A": "6 covalent bonds",
            "B": "7 covalent bonds",
            "C": "8 covalent bonds",
            "D": "9 covalent bonds"
        },
        "vikalpa": {
            "A": "6 सह-संयोजक बंध हैं",
            "B": "7 सह-संयोजक बंध हैं",
            "C": "8 सह-संयोजक बंध हैं",
            "D": "9 सह-संयोजक बंध हैं"
        }
    },
    {
        "id": "obj_15",
        "type": "objective",
        "question": "The number of oxygen atoms in a molecule of ozone is",
        "prashna": "ओजोन के अणु में ऑक्सीजन के परमाणु की संख्या होती है।",
        "options": {
            "A": "1",
            "B": "2",
            "C": "3",
            "D": "4"
        },
        "vikalpa": {
            "A": "1",
            "B": "2",
            "C": "3",
            "D": "4"
        }
    },
    {
        "id": "obj_16",
        "type": "objective",
        "question": "In humans, the kidney is a part of a system which is related to",
        "prashna": "मनुष्य में वृक्क एक तंत्र का भाग है, जो संबंधित है",
        "options": {
            "A": "nutrition",
            "B": "respiration",
            "C": "excretion",
            "D": "transportation"
        },
        "vikalpa": {
            "A": "पोषण से",
            "B": "श्वसन से",
            "C": "उत्सर्जन से",
            "D": "परिवहन से"
        }
    },
    {
        "id": "obj_17",
        "type": "objective",
        "question": "The gap between two neurons is called a",
        "prashna": "दो तंत्रिका कोशिका के मध्य खाली स्थान को कहते हैं",
        "options": {
            "A": "dendrite",
            "B": "synapse",
            "C": "axon",
            "D": "impulse"
        },
        "vikalpa": {
            "A": "द्रुमिका",
            "B": "सिनेप्स",
            "C": "एक्सॉन",
            "D": "आवेग"
        }
    },
    {
        "id": "obj_18",
        "type": "objective",
        "question": "The anther contains",
        "prashna": "परागकोश में होते हैं",
        "options": {
            "A": "sepals",
            "B": "ovary",
            "C": "carpel",
            "D": "pollen grains"
        },
        "vikalpa": {
            "A": "बाह्य दल",
            "B": "अंडाशय",
            "C": "अंडप",
            "D": "परागकण"
        }
    },
    {
        "id": "obj_19",
        "type": "objective",
        "question": "In evolutionary terms, with whom do we have more commonalities?",
        "prashna": "विकासीय दृष्टिकोण से हमारी किससे अधिक समानता है?",
        "options": {
            "A": "Chinese student",
            "B": "Chimpanzee",
            "C": "Spider",
            "D": "Bacterium"
        },
        "vikalpa": {
            "A": "चीन के विद्यार्थी",
            "B": "चिम्पैंजी",
            "C": "मकड़ी",
            "D": "जीवाणु"
        }
    },
    {
        "id": "obj_20",
        "type": "objective",
        "question": "Asexual reproduction takes place through budding in",
        "prashna": "मुकुलन द्वारा अलैंगिक जनन होता है",
        "options": {
            "A": "Amoeba",
            "B": "Yeast",
            "C": "Plasmodium",
            "D": "Leishmania"
        },
        "vikalpa": {
            "A": "अभीफण भें",
            "B": "मीस्ट भें",
            "C": "प्रज्ै भोडडमभ भें",
            "D": "रेश्भननमण भें"
        }
    }
]